<?xml version="1.0" encoding="UTF-8"?>

<!-- generated on 2025-07-28 16:11:38 by Eclipse SUMO sumo Version 1.24.0
<sumoConfiguration xmlns:xsi="http://www.w3.org/2001/XMLSchema-instance" xsi:noNamespaceSchemaLocation="http://sumo.dlr.de/xsd/sumoConfiguration.xsd">

    <input>
        <net-file value="simple_intersection.net.xml"/>
        <route-files value="poisson_routes.rou.xml"/>
    </input>

    <output>
        <tripinfo-output value="tripinfo_adaptive.xml"/>
    </output>

    <time>
        <begin value="0"/>
        <end value="10800"/>
        <step-length value="1"/>
    </time>

    <traci_server>
        <remote-port value="54918"/>
    </traci_server>

</sumoConfiguration>
-->

<tripinfos xmlns:xsi="http://www.w3.org/2001/XMLSchema-instance" xsi:noNamespaceSchemaLocation="http://sumo.dlr.de/xsd/tripinfo_file.xsd">
    <tripinfo id="car3615" depart="4.00" departLane="west2center_0" departPos="5.10" departSpeed="8.33" departDelay="0.00" arrival="53.00" arrivalLane="center2east_0" arrivalPos="192.80" arrivalSpeed="8.05" duration="49.00" routeLength="394.90" waitingTime="0.00" waitingCount="0" stopTime="0.00" timeLoss="1.43" rerouteNo="0" devices="tripinfo_car3615" vType="west2east_car" speedFactor="1.06" vaporized=""/>
    <tripinfo id="car0" depart="5.00" departLane="north2center_0" departPos="5.10" departSpeed="13.03" departDelay="0.00" arrival="54.00" arrivalLane="center2south_0" arrivalPos="192.80" arrivalSpeed="12.83" duration="49.00" routeLength="394.90" waitingTime="6.00" waitingCount="1" stopTime="0.00" timeLoss="18.17" rerouteNo="0" devices="tripinfo_car0" vType="north2south_car" speedFactor="0.94" vaporized=""/>
    <tripinfo id="car4684" depart="5.00" departLane="east2center_0" departPos="5.10" departSpeed="8.33" departDelay="0.00" arrival="54.00" arrivalLane="center2west_0" arrivalPos="192.80" arrivalSpeed="7.84" duration="49.00" routeLength="394.90" waitingTime="0.00" waitingCount="0" stopTime="0.00" timeLoss="1.49" rerouteNo="0" devices="tripinfo_car4684" vType="east2west_car" speedFactor="1.01" vaporized=""/>
    <tripinfo id="car1781" depart="6.00" departLane="south2center_0" departPos="5.10" departSpeed="13.89" departDelay="0.00" arrival="54.00" arrivalLane="center2north_0" arrivalPos="192.80" arrivalSpeed="13.70" duration="48.00" routeLength="394.90" waitingTime="6.00" waitingCount="1" stopTime="0.00" timeLoss="18.67" rerouteNo="0" devices="tripinfo_car1781" vType="south2north_car" speedFactor="1.08" vaporized=""/>
    <tripinfo id="car1" depart="15.00" departLane="north2center_0" departPos="5.10" departSpeed="13.89" departDelay="0.00" arrival="56.00" arrivalLane="center2south_0" arrivalPos="192.80" arrivalSpeed="13.78" duration="41.00" routeLength="394.90" waitingTime="0.00" waitingCount="0" stopTime="0.00" timeLoss="11.64" rerouteNo="0" devices="tripinfo_car1" vType="north2south_car" speedFactor="1.05" vaporized=""/>
    <tripinfo id="car1782" depart="16.00" departLane="south2center_0" departPos="5.10" departSpeed="12.31" departDelay="0.00" arrival="56.00" arrivalLane="center2north_0" arrivalPos="192.80" arrivalSpeed="11.92" duration="40.00" routeLength="394.90" waitingTime="0.00" waitingCount="0" stopTime="0.00" timeLoss="7.81" rerouteNo="0" devices="tripinfo_car1782" vType="south2north_car" speedFactor="0.89" vaporized=""/>
    <tripinfo id="car2" depart="18.00" departLane="north2center_0" departPos="5.10" departSpeed="13.03" departDelay="0.00" arrival="58.00" arrivalLane="center2south_0" arrivalPos="192.80" arrivalSpeed="12.69" duration="40.00" routeLength="394.90" waitingTime="0.00" waitingCount="0" stopTime="0.00" timeLoss="8.75" rerouteNo="0" devices="tripinfo_car2" vType="north2south_car" speedFactor="0.94" vaporized=""/>
    <tripinfo id="car3616" depart="10.00" departLane="west2center_0" departPos="5.10" departSpeed="8.33" departDelay="0.00" arrival="70.00" arrivalLane="center2east_0" arrivalPos="192.80" arrivalSpeed="8.09" duration="60.00" routeLength="394.90" waitingTime="5.00" waitingCount="1" stopTime="0.00" timeLoss="12.11" rerouteNo="0" devices="tripinfo_car3616" vType="west2east_car" speedFactor="1.03" vaporized=""/>
    <tripinfo id="car4685" depart="14.00" departLane="east2center_0" departPos="5.10" departSpeed="8.33" departDelay="0.00" arrival="70.00" arrivalLane="center2west_0" arrivalPos="192.80" arrivalSpeed="7.84" duration="56.00" routeLength="394.90" waitingTime="1.00" waitingCount="1" stopTime="0.00" timeLoss="8.04" rerouteNo="0" devices="tripinfo_car4685" vType="east2west_car" speedFactor="0.83" vaporized=""/>
    <tripinfo id="car4686" depart="19.00" departLane="east2center_0" departPos="5.10" departSpeed="8.33" departDelay="0.00" arrival="72.00" arrivalLane="center2west_0" arrivalPos="192.80" arrivalSpeed="8.17" duration="53.00" routeLength="394.90" waitingTime="0.00" waitingCount="0" stopTime="0.00" timeLoss="5.23" rerouteNo="0" devices="tripinfo_car4686" vType="east2west_car" speedFactor="1.09" vaporized=""/>
    <tripinfo id="car3617" depart="19.00" departLane="west2center_0" departPos="5.10" departSpeed="8.33" departDelay="0.00" arrival="73.00" arrivalLane="center2east_0" arrivalPos="192.80" arrivalSpeed="7.90" duration="54.00" routeLength="394.90" waitingTime="0.00" waitingCount="0" stopTime="0.00" timeLoss="5.81" rerouteNo="0" devices="tripinfo_car3617" vType="west2east_car" speedFactor="0.86" vaporized=""/>
    <tripinfo id="car3" depart="22.00" departLane="north2center_0" departPos="5.10" departSpeed="13.89" departDelay="0.00" arrival="73.00" arrivalLane="center2south_0" arrivalPos="192.80" arrivalSpeed="13.55" duration="51.00" routeLength="394.90" waitingTime="7.00" waitingCount="1" stopTime="0.00" timeLoss="22.40" rerouteNo="0" devices="tripinfo_car3" vType="north2south_car" speedFactor="1.03" vaporized=""/>
    <tripinfo id="car1783" depart="25.00" departLane="south2center_0" departPos="5.10" departSpeed="13.77" departDelay="0.00" arrival="73.00" arrivalLane="center2north_0" arrivalPos="192.80" arrivalSpeed="13.65" duration="48.00" routeLength="394.90" waitingTime="10.00" waitingCount="1" stopTime="0.00" timeLoss="19.13" rerouteNo="0" devices="tripinfo_car1783" vType="south2north_car" speedFactor="0.99" vaporized=""/>
    <tripinfo id="car4687" depart="24.00" departLane="east2center_0" departPos="5.10" departSpeed="8.33" departDelay="0.00" arrival="74.00" arrivalLane="center2west_0" arrivalPos="192.80" arrivalSpeed="8.08" duration="50.00" routeLength="394.90" waitingTime="0.00" waitingCount="0" stopTime="0.00" timeLoss="2.36" rerouteNo="0" devices="tripinfo_car4687" vType="east2west_car" speedFactor="1.05" vaporized=""/>
    <tripinfo id="car1784" depart="31.00" departLane="south2center_0" departPos="5.10" departSpeed="12.87" departDelay="0.00" arrival="76.00" arrivalLane="center2north_0" arrivalPos="192.80" arrivalSpeed="12.47" duration="45.00" routeLength="394.90" waitingTime="2.00" waitingCount="1" stopTime="0.00" timeLoss="14.18" rerouteNo="0" devices="tripinfo_car1784" vType="south2north_car" speedFactor="0.93" vaporized=""/>
    <tripinfo id="car4" depart="31.00" departLane="north2center_0" departPos="5.10" departSpeed="12.20" departDelay="0.00" arrival="76.00" arrivalLane="center2south_0" arrivalPos="192.80" arrivalSpeed="11.91" duration="45.00" routeLength="394.90" waitingTime="2.00" waitingCount="1" stopTime="0.00" timeLoss="12.18" rerouteNo="0" devices="tripinfo_car4" vType="north2south_car" speedFactor="0.88" vaporized=""/>
    <tripinfo id="car1785" depart="39.00" departLane="south2center_0" departPos="5.10" departSpeed="13.89" departDelay="0.00" arrival="78.00" arrivalLane="center2north_0" arrivalPos="192.80" arrivalSpeed="13.40" duration="39.00" routeLength="394.90" waitingTime="0.00" waitingCount="0" stopTime="0.00" timeLoss="10.05" rerouteNo="0" devices="tripinfo_car1785" vType="south2north_car" speedFactor="1.02" vaporized=""/>
    <tripinfo id="car5" depart="40.00" departLane="north2center_0" departPos="5.10" departSpeed="13.89" departDelay="0.00" arrival="78.00" arrivalLane="center2south_0" arrivalPos="192.80" arrivalSpeed="13.26" duration="38.00" routeLength="394.90" waitingTime="0.00" waitingCount="0" stopTime="0.00" timeLoss="8.76" rerouteNo="0" devices="tripinfo_car5" vType="north2south_car" speedFactor="1.01" vaporized=""/>
    <tripinfo id="car3618" depart="32.00" departLane="west2center_0" departPos="5.10" departSpeed="8.33" departDelay="0.00" arrival="90.00" arrivalLane="center2east_0" arrivalPos="192.80" arrivalSpeed="8.08" duration="58.00" routeLength="394.90" waitingTime="2.00" waitingCount="1" stopTime="0.00" timeLoss="10.41" rerouteNo="0" devices="tripinfo_car3618" vType="west2east_car" speedFactor="0.94" vaporized=""/>
    <tripinfo id="car4688" depart="25.00" departLane="east2center_0" departPos="5.10" departSpeed="4.52" departDelay="0.00" arrival="91.00" arrivalLane="center2west_0" arrivalPos="192.80" arrivalSpeed="8.04" duration="66.00" routeLength="394.90" waitingTime="7.00" waitingCount="1" stopTime="0.00" timeLoss="17.65" rerouteNo="0" devices="tripinfo_car4688" vType="east2west_car" speedFactor="1.12" vaporized=""/>
    <tripinfo id="car3619" depart="34.00" departLane="west2center_0" departPos="5.10" departSpeed="8.12" departDelay="0.00" arrival="93.00" arrivalLane="center2east_0" arrivalPos="192.80" arrivalSpeed="8.18" duration="59.00" routeLength="394.90" waitingTime="1.00" waitingCount="1" stopTime="0.00" timeLoss="10.88" rerouteNo="0" devices="tripinfo_car3619" vType="west2east_car" speedFactor="0.94" vaporized=""/>
    <tripinfo id="car4689" depart="43.00" departLane="east2center_0" departPos="5.10" departSpeed="8.33" departDelay="0.00" arrival="93.00" arrivalLane="center2west_0" arrivalPos="192.80" arrivalSpeed="8.21" duration="50.00" routeLength="394.90" waitingTime="0.00" waitingCount="0" stopTime="0.00" timeLoss="1.69" rerouteNo="0" devices="tripinfo_car4689" vType="east2west_car" speedFactor="0.97" vaporized=""/>
    <tripinfo id="car4690" depart="45.00" departLane="east2center_0" departPos="5.10" departSpeed="8.33" departDelay="0.00" arrival="95.00" arrivalLane="center2west_0" arrivalPos="192.80" arrivalSpeed="8.30" duration="50.00" routeLength="394.90" waitingTime="0.00" waitingCount="0" stopTime="0.00" timeLoss="1.70" rerouteNo="0" devices="tripinfo_car4690" vType="east2west_car" speedFactor="0.92" vaporized=""/>
    <tripinfo id="car3620" depart="35.00" departLane="west2center_0" departPos="5.10" departSpeed="4.03" departDelay="0.00" arrival="96.00" arrivalLane="center2east_0" arrivalPos="192.80" arrivalSpeed="8.30" duration="61.00" routeLength="394.90" waitingTime="1.00" waitingCount="1" stopTime="0.00" timeLoss="12.67" rerouteNo="0" devices="tripinfo_car3620" vType="west2east_car" speedFactor="1.16" vaporized=""/>
    <tripinfo id="car3621" depart="44.00" departLane="west2center_0" departPos="5.10" departSpeed="8.33" departDelay="0.00" arrival="98.00" arrivalLane="center2east_0" arrivalPos="192.80" arrivalSpeed="8.16" duration="54.00" routeLength="394.90" waitingTime="0.00" waitingCount="0" stopTime="0.00" timeLoss="6.00" rerouteNo="0" devices="tripinfo_car3621" vType="west2east_car" speedFactor="0.83" vaporized=""/>
    <tripinfo id="car4691" depart="49.00" departLane="east2center_0" departPos="5.10" departSpeed="8.33" departDelay="0.00" arrival="98.00" arrivalLane="center2west_0" arrivalPos="192.80" arrivalSpeed="8.23" duration="49.00" routeLength="394.90" waitingTime="0.00" waitingCount="0" stopTime="0.00" timeLoss="1.42" rerouteNo="0" devices="tripinfo_car4691" vType="east2west_car" speedFactor="1.13" vaporized=""/>
    <tripinfo id="car4692" depart="52.00" departLane="east2center_0" departPos="5.10" departSpeed="8.33" departDelay="0.00" arrival="101.00" arrivalLane="center2west_0" arrivalPos="192.80" arrivalSpeed="7.92" duration="49.00" routeLength="394.90" waitingTime="0.00" waitingCount="0" stopTime="0.00" timeLoss="1.24" rerouteNo="0" devices="tripinfo_car4692" vType="east2west_car" speedFactor="0.93" vaporized=""/>
    <tripinfo id="car3622" depart="52.00" departLane="west2center_0" departPos="5.10" departSpeed="8.33" departDelay="0.00" arrival="101.00" arrivalLane="center2east_0" arrivalPos="192.80" arrivalSpeed="8.14" duration="49.00" routeLength="394.90" waitingTime="0.00" waitingCount="0" stopTime="0.00" timeLoss="1.58" rerouteNo="0" devices="tripinfo_car3622" vType="west2east_car" speedFactor="1.18" vaporized=""/>
    <tripinfo id="car3623" depart="54.00" departLane="west2center_0" departPos="5.10" departSpeed="8.14" departDelay="0.00" arrival="103.00" arrivalLane="center2east_0" arrivalPos="192.80" arrivalSpeed="8.23" duration="49.00" routeLength="394.90" waitingTime="0.00" waitingCount="0" stopTime="0.00" timeLoss="1.53" rerouteNo="0" devices="tripinfo_car3623" vType="west2east_car" speedFactor="1.15" vaporized=""/>
    <tripinfo id="car1786" depart="43.00" departLane="south2center_0" departPos="5.10" departSpeed="12.36" departDelay="0.00" arrival="104.00" arrivalLane="center2north_0" arrivalPos="192.80" arrivalSpeed="12.29" duration="61.00" routeLength="394.90" waitingTime="17.00" waitingCount="1" stopTime="0.00" timeLoss="28.70" rerouteNo="0" devices="tripinfo_car1786" vType="south2north_car" speedFactor="0.89" vaporized=""/>
    <tripinfo id="car6" depart="46.00" departLane="north2center_0" departPos="5.10" departSpeed="13.18" departDelay="0.00" arrival="104.00" arrivalLane="center2south_0" arrivalPos="192.80" arrivalSpeed="12.72" duration="58.00" routeLength="394.90" waitingTime="16.00" waitingCount="1" stopTime="0.00" timeLoss="27.55" rerouteNo="0" devices="tripinfo_car6" vType="north2south_car" speedFactor="0.95" vaporized=""/>
    <tripinfo id="car1787" depart="44.00" departLane="south2center_0" departPos="5.10" departSpeed="9.51" departDelay="0.00" arrival="106.00" arrivalLane="center2north_0" arrivalPos="192.80" arrivalSpeed="11.64" duration="62.00" routeLength="394.90" waitingTime="17.00" waitingCount="1" stopTime="0.00" timeLoss="29.09" rerouteNo="0" devices="tripinfo_car1787" vType="south2north_car" speedFactor="0.87" vaporized=""/>
    <tripinfo id="car7" depart="67.00" departLane="north2center_0" departPos="5.10" departSpeed="13.82" departDelay="0.00" arrival="106.00" arrivalLane="center2south_0" arrivalPos="192.80" arrivalSpeed="13.78" duration="39.00" routeLength="394.90" waitingTime="0.00" waitingCount="0" stopTime="0.00" timeLoss="9.83" rerouteNo="0" devices="tripinfo_car7" vType="north2south_car" speedFactor="0.99" vaporized=""/>
    <tripinfo id="car1788" depart="66.00" departLane="south2center_0" departPos="5.10" departSpeed="13.89" departDelay="0.00" arrival="108.00" arrivalLane="center2north_0" arrivalPos="192.80" arrivalSpeed="13.71" duration="42.00" routeLength="394.90" waitingTime="1.00" waitingCount="1" stopTime="0.00" timeLoss="12.85" rerouteNo="0" devices="tripinfo_car1788" vType="south2north_car" speedFactor="1.17" vaporized=""/>
    <tripinfo id="car8" depart="72.00" departLane="north2center_0" departPos="5.10" departSpeed="13.52" departDelay="0.00" arrival="108.00" arrivalLane="center2south_0" arrivalPos="192.80" arrivalSpeed="13.44" duration="36.00" routeLength="394.90" waitingTime="0.00" waitingCount="0" stopTime="0.00" timeLoss="5.95" rerouteNo="0" devices="tripinfo_car8" vType="north2south_car" speedFactor="0.97" vaporized=""/>
    <tripinfo id="car3624" depart="70.00" departLane="west2center_0" departPos="5.10" departSpeed="8.33" departDelay="1.00" arrival="119.00" arrivalLane="center2east_0" arrivalPos="192.80" arrivalSpeed="8.14" duration="49.00" routeLength="394.90" waitingTime="0.00" waitingCount="0" stopTime="0.00" timeLoss="1.42" rerouteNo="0" devices="tripinfo_car3624" vType="west2east_car" speedFactor="1.02" vaporized=""/>
    <tripinfo id="car4693" depart="62.00" departLane="east2center_0" departPos="5.10" departSpeed="8.33" departDelay="0.00" arrival="120.00" arrivalLane="center2west_0" arrivalPos="192.80" arrivalSpeed="7.84" duration="58.00" routeLength="394.90" waitingTime="2.00" waitingCount="1" stopTime="0.00" timeLoss="10.16" rerouteNo="0" devices="tripinfo_car4693" vType="east2west_car" speedFactor="1.01" vaporized=""/>
    <tripinfo id="car9" depart="73.00" departLane="north2center_0" departPos="5.10" departSpeed="10.92" departDelay="0.00" arrival="123.00" arrivalLane="center2south_0" arrivalPos="192.80" arrivalSpeed="13.45" duration="50.00" routeLength="394.90" waitingTime="8.00" waitingCount="1" stopTime="0.00" timeLoss="21.43" rerouteNo="0" devices="tripinfo_car9" vType="north2south_car" speedFactor="1.18" vaporized=""/>
    <tripinfo id="car4694" depart="75.00" departLane="east2center_0" departPos="5.10" departSpeed="8.33" departDelay="0.00" arrival="124.00" arrivalLane="center2west_0" arrivalPos="192.80" arrivalSpeed="7.85" duration="49.00" routeLength="394.90" waitingTime="0.00" waitingCount="0" stopTime="0.00" timeLoss="1.52" rerouteNo="0" devices="tripinfo_car4694" vType="east2west_car" speedFactor="1.10" vaporized=""/>
    <tripinfo id="car1789" depart="95.00" departLane="south2center_0" departPos="5.10" departSpeed="13.89" departDelay="0.00" arrival="124.00" arrivalLane="center2north_0" arrivalPos="192.80" arrivalSpeed="13.84" duration="29.00" routeLength="394.90" waitingTime="0.00" waitingCount="0" stopTime="0.00" timeLoss="0.53" rerouteNo="0" devices="tripinfo_car1789" vType="south2north_car" speedFactor="1.02" vaporized=""/>
    <tripinfo id="car10" depart="76.00" departLane="north2center_0" departPos="5.10" departSpeed="12.51" departDelay="0.00" arrival="126.00" arrivalLane="center2south_0" arrivalPos="192.80" arrivalSpeed="12.24" duration="50.00" routeLength="394.90" waitingTime="7.00" waitingCount="1" stopTime="0.00" timeLoss="18.38" rerouteNo="0" devices="tripinfo_car10" vType="north2south_car" speedFactor="0.90" vaporized=""/>
    <tripinfo id="car11" depart="79.00" departLane="north2center_0" departPos="5.10" departSpeed="13.89" departDelay="0.00" arrival="128.00" arrivalLane="center2south_0" arrivalPos="192.80" arrivalSpeed="13.65" duration="49.00" routeLength="394.90" waitingTime="6.00" waitingCount="1" stopTime="0.00" timeLoss="20.04" rerouteNo="0" devices="tripinfo_car11" vType="north2south_car" speedFactor="1.04" vaporized=""/>
    <tripinfo id="car4695" depart="77.00" departLane="east2center_0" departPos="5.10" departSpeed="8.08" departDelay="0.00" arrival="140.00" arrivalLane="center2west_0" arrivalPos="192.80" arrivalSpeed="7.88" duration="63.00" routeLength="394.90" waitingTime="6.00" waitingCount="1" stopTime="0.00" timeLoss="15.18" rerouteNo="0" devices="tripinfo_car4695" vType="east2west_car" speedFactor="1.03" vaporized=""/>
    <tripinfo id="car3625" depart="78.00" departLane="west2center_0" departPos="5.10" departSpeed="8.33" departDelay="0.00" arrival="140.00" arrivalLane="center2east_0" arrivalPos="192.80" arrivalSpeed="8.03" duration="62.00" routeLength="394.90" waitingTime="5.00" waitingCount="1" stopTime="0.00" timeLoss="14.32" rerouteNo="0" devices="tripinfo_car3625" vType="west2east_car" speedFactor="1.09" vaporized=""/>
    <tripinfo id="car4696" depart="78.00" departLane="east2center_0" departPos="5.10" departSpeed="3.32" departDelay="1.00" arrival="143.00" arrivalLane="center2west_0" arrivalPos="192.80" arrivalSpeed="8.16" duration="65.00" routeLength="394.90" waitingTime="6.00" waitingCount="1" stopTime="0.00" timeLoss="16.68" rerouteNo="0" devices="tripinfo_car4696" vType="east2west_car" speedFactor="0.96" vaporized=""/>
    <tripinfo id="car3626" depart="79.00" departLane="west2center_0" departPos="5.10" departSpeed="4.56" departDelay="0.00" arrival="143.00" arrivalLane="center2east_0" arrivalPos="192.80" arrivalSpeed="7.96" duration="64.00" routeLength="394.90" waitingTime="5.00" waitingCount="1" stopTime="0.00" timeLoss="15.73" rerouteNo="0" devices="tripinfo_car3626" vType="west2east_car" speedFactor="1.04" vaporized=""/>
    <tripinfo id="car12" depart="83.00" departLane="north2center_0" departPos="5.10" departSpeed="13.85" departDelay="0.00" arrival="143.00" arrivalLane="center2south_0" arrivalPos="192.80" arrivalSpeed="13.85" duration="60.00" routeLength="394.90" waitingTime="12.00" waitingCount="2" stopTime="0.00" timeLoss="31.22" rerouteNo="0" devices="tripinfo_car12" vType="north2south_car" speedFactor="1.00" vaporized=""/>
    <tripinfo id="car1790" depart="97.00" departLane="south2center_0" departPos="5.10" departSpeed="13.47" departDelay="0.00" arrival="143.00" arrivalLane="center2north_0" arrivalPos="192.80" arrivalSpeed="13.24" duration="46.00" routeLength="394.90" waitingTime="5.00" waitingCount="1" stopTime="0.00" timeLoss="16.17" rerouteNo="0" devices="tripinfo_car1790" vType="south2north_car" speedFactor="0.97" vaporized=""/>
    <tripinfo id="car4697" depart="82.00" departLane="east2center_0" departPos="5.10" departSpeed="7.39" departDelay="0.00" arrival="145.00" arrivalLane="center2west_0" arrivalPos="192.80" arrivalSpeed="7.88" duration="63.00" routeLength="394.90" waitingTime="4.00" waitingCount="1" stopTime="0.00" timeLoss="14.79" rerouteNo="0" devices="tripinfo_car4697" vType="east2west_car" speedFactor="1.09" vaporized=""/>
    <tripinfo id="car3627" depart="87.00" departLane="west2center_0" departPos="5.10" departSpeed="8.33" departDelay="0.00" arrival="145.00" arrivalLane="center2east_0" arrivalPos="192.80" arrivalSpeed="8.22" duration="58.00" routeLength="394.90" waitingTime="2.00" waitingCount="1" stopTime="0.00" timeLoss="9.86" rerouteNo="0" devices="tripinfo_car3627" vType="west2east_car" speedFactor="0.85" vaporized=""/>
    <tripinfo id="car1791" depart="98.00" departLane="south2center_0" departPos="5.10" departSpeed="10.82" departDelay="1.00" arrival="145.00" arrivalLane="center2north_0" arrivalPos="192.80" arrivalSpeed="13.81" duration="47.00" routeLength="394.90" waitingTime="4.00" waitingCount="1" stopTime="0.00" timeLoss="17.72" rerouteNo="0" devices="tripinfo_car1791" vType="south2north_car" speedFactor="1.08" vaporized=""/>
    <tripinfo id="car13" depart="84.00" departLane="north2center_0" departPos="5.10" departSpeed="11.46" departDelay="0.00" arrival="146.00" arrivalLane="center2south_0" arrivalPos="192.80" arrivalSpeed="12.02" duration="62.00" routeLength="394.90" waitingTime="11.00" waitingCount="2" stopTime="0.00" timeLoss="30.06" rerouteNo="0" devices="tripinfo_car13" vType="north2south_car" speedFactor="0.90" vaporized=""/>
    <tripinfo id="car1792" depart="99.00" departLane="south2center_0" departPos="5.10" departSpeed="7.92" departDelay="1.00" arrival="147.00" arrivalLane="center2north_0" arrivalPos="192.80" arrivalSpeed="13.58" duration="48.00" routeLength="394.90" waitingTime="6.00" waitingCount="1" stopTime="0.00" timeLoss="19.09" rerouteNo="0" devices="tripinfo_car1792" vType="south2north_car" speedFactor="1.12" vaporized=""/>
    <tripinfo id="car14" depart="85.00" departLane="north2center_0" departPos="5.10" departSpeed="8.72" departDelay="0.00" arrival="148.00" arrivalLane="center2south_0" arrivalPos="192.80" arrivalSpeed="12.09" duration="63.00" routeLength="394.90" waitingTime="10.00" waitingCount="2" stopTime="0.00" timeLoss="30.22" rerouteNo="0" devices="tripinfo_car14" vType="north2south_car" speedFactor="0.88" vaporized=""/>
    <tripinfo id="car3628" depart="89.00" departLane="west2center_0" departPos="5.10" departSpeed="8.04" departDelay="0.00" arrival="160.00" arrivalLane="center2east_0" arrivalPos="192.80" arrivalSpeed="7.99" duration="71.00" routeLength="394.90" waitingTime="8.00" waitingCount="2" stopTime="0.00" timeLoss="23.45" rerouteNo="0" devices="tripinfo_car3628" vType="west2east_car" speedFactor="0.85" vaporized=""/>
    <tripinfo id="car4698" depart="90.00" departLane="east2center_0" departPos="5.10" departSpeed="8.33" departDelay="0.00" arrival="160.00" arrivalLane="center2west_0" arrivalPos="192.80" arrivalSpeed="8.21" duration="70.00" routeLength="394.90" waitingTime="8.00" waitingCount="1" stopTime="0.00" timeLoss="22.41" rerouteNo="0" devices="tripinfo_car4698" vType="east2west_car" speedFactor="1.17" vaporized=""/>
    <tripinfo id="car4699" depart="91.00" departLane="east2center_0" departPos="5.10" departSpeed="3.96" departDelay="0.00" arrival="162.00" arrivalLane="center2west_0" arrivalPos="192.80" arrivalSpeed="8.15" duration="71.00" routeLength="394.90" waitingTime="7.00" waitingCount="1" stopTime="0.00" timeLoss="23.52" rerouteNo="0" devices="tripinfo_car4699" vType="east2west_car" speedFactor="1.02" vaporized=""/>
    <tripinfo id="car3629" depart="95.00" departLane="west2center_0" departPos="5.10" departSpeed="8.33" departDelay="1.00" arrival="163.00" arrivalLane="center2east_0" arrivalPos="192.80" arrivalSpeed="8.02" duration="68.00" routeLength="394.90" waitingTime="6.00" waitingCount="1" stopTime="0.00" timeLoss="19.88" rerouteNo="0" devices="tripinfo_car3629" vType="west2east_car" speedFactor="1.14" vaporized=""/>
    <tripinfo id="car1793" depart="104.00" departLane="south2center_0" departPos="5.10" departSpeed="13.02" departDelay="1.00" arrival="163.00" arrivalLane="center2north_0" arrivalPos="192.80" arrivalSpeed="12.54" duration="59.00" routeLength="394.90" waitingTime="12.00" waitingCount="2" stopTime="0.00" timeLoss="28.54" rerouteNo="0" devices="tripinfo_car1793" vType="south2north_car" speedFactor="0.94" vaporized=""/>
    <tripinfo id="car4700" depart="93.00" departLane="east2center_0" departPos="5.10" departSpeed="0.88" departDelay="1.00" arrival="164.00" arrivalLane="center2west_0" arrivalPos="192.80" arrivalSpeed="8.02" duration="71.00" routeLength="394.90" waitingTime="6.00" waitingCount="1" stopTime="0.00" timeLoss="23.59" rerouteNo="0" devices="tripinfo_car4700" vType="east2west_car" speedFactor="1.10" vaporized=""/>
    <tripinfo id="car15" depart="92.00" departLane="north2center_0" departPos="5.10" departSpeed="13.89" departDelay="0.00" arrival="164.00" arrivalLane="center2south_0" arrivalPos="192.80" arrivalSpeed="13.49" duration="72.00" routeLength="394.90" waitingTime="14.00" waitingCount="3" stopTime="0.00" timeLoss="42.82" rerouteNo="0" devices="tripinfo_car15" vType="north2south_car" speedFactor="1.00" vaporized=""/>
    <tripinfo id="car3630" depart="102.00" departLane="west2center_0" departPos="5.10" departSpeed="8.33" departDelay="0.00" arrival="165.00" arrivalLane="center2east_0" arrivalPos="192.80" arrivalSpeed="8.10" duration="63.00" routeLength="394.90" waitingTime="6.00" waitingCount="1" stopTime="0.00" timeLoss="15.05" rerouteNo="0" devices="tripinfo_car3630" vType="west2east_car" speedFactor="1.02" vaporized=""/>
    <tripinfo id="car16" depart="93.00" departLane="north2center_0" departPos="5.10" departSpeed="11.39" departDelay="0.00" arrival="166.00" arrivalLane="center2south_0" arrivalPos="192.80" arrivalSpeed="13.70" duration="73.00" routeLength="394.90" waitingTime="12.00" waitingCount="3" stopTime="0.00" timeLoss="43.84" rerouteNo="0" devices="tripinfo_car16" vType="north2south_car" speedFactor="1.00" vaporized=""/>
    <tripinfo id="car1794" depart="106.00" departLane="south2center_0" departPos="5.10" departSpeed="12.26" departDelay="1.00" arrival="167.00" arrivalLane="center2north_0" arrivalPos="192.80" arrivalSpeed="12.16" duration="61.00" routeLength="394.90" waitingTime="8.00" waitingCount="2" stopTime="0.00" timeLoss="28.11" rerouteNo="0" devices="tripinfo_car1794" vType="south2north_car" speedFactor="0.88" vaporized=""/>
    <tripinfo id="car17" depart="94.00" departLane="north2center_0" departPos="5.10" departSpeed="8.15" departDelay="0.00" arrival="168.00" arrivalLane="center2south_0" arrivalPos="192.80" arrivalSpeed="12.16" duration="74.00" routeLength="394.90" waitingTime="9.00" waitingCount="2" stopTime="0.00" timeLoss="42.19" rerouteNo="0" devices="tripinfo_car17" vType="north2south_car" speedFactor="0.90" vaporized=""/>
    <tripinfo id="car1795" depart="108.00" departLane="south2center_0" departPos="5.10" departSpeed="12.60" departDelay="1.00" arrival="169.00" arrivalLane="center2north_0" arrivalPos="192.80" arrivalSpeed="12.36" duration="61.00" routeLength="394.90" waitingTime="8.00" waitingCount="2" stopTime="0.00" timeLoss="29.04" rerouteNo="0" devices="tripinfo_car1795" vType="south2north_car" speedFactor="0.91" vaporized=""/>
    <tripinfo id="car18" depart="114.00" departLane="north2center_0" departPos="5.10" departSpeed="13.89" departDelay="0.00" arrival="170.00" arrivalLane="center2south_0" arrivalPos="192.80" arrivalSpeed="13.18" duration="56.00" routeLength="394.90" waitingTime="5.00" waitingCount="1" stopTime="0.00" timeLoss="27.01" rerouteNo="0" devices="tripinfo_car18" vType="north2south_car" speedFactor="1.02" vaporized=""/>
    <tripinfo id="car1796" depart="126.00" departLane="south2center_0" departPos="5.10" departSpeed="13.06" departDelay="0.00" arrival="171.00" arrivalLane="center2north_0" arrivalPos="192.80" arrivalSpeed="12.72" duration="45.00" routeLength="394.90" waitingTime="0.00" waitingCount="0" stopTime="0.00" timeLoss="13.80" rerouteNo="0" devices="tripinfo_car1796" vType="south2north_car" speedFactor="0.94" vaporized=""/>
    <tripinfo id="car19" depart="130.00" departLane="north2center_0" departPos="5.10" departSpeed="13.89" departDelay="0.00" arrival="172.00" arrivalLane="center2south_0" arrivalPos="192.80" arrivalSpeed="13.56" duration="42.00" routeLength="394.90" waitingTime="0.00" waitingCount="0" stopTime="0.00" timeLoss="12.61" rerouteNo="0" devices="tripinfo_car19" vType="north2south_car" speedFactor="1.06" vaporized=""/>
    <tripinfo id="car1797" depart="134.00" departLane="south2center_0" departPos="5.10" departSpeed="13.68" departDelay="0.00" arrival="172.00" arrivalLane="center2north_0" arrivalPos="192.80" arrivalSpeed="13.41" duration="38.00" routeLength="394.90" waitingTime="0.00" waitingCount="0" stopTime="0.00" timeLoss="8.79" rerouteNo="0" devices="tripinfo_car1797" vType="south2north_car" speedFactor="0.98" vaporized=""/>