<?xml version="1.0" encoding="UTF-8"?>

<!-- generated on 2025-07-28 21:52:29 by Eclipse SUMO sumo Version 1.24.0
<sumoConfiguration xmlns:xsi="http://www.w3.org/2001/XMLSchema-instance" xsi:noNamespaceSchemaLocation="http://sumo.dlr.de/xsd/sumoConfiguration.xsd">

    <input>
        <net-file value="simple_intersection.net.xml"/>
        <route-files value="poisson_routes.rou.xml"/>
    </input>

    <output>
        <tripinfo-output value="tripinfo_adaptive.xml"/>
    </output>

    <time>
        <begin value="0"/>
        <end value="10800"/>
        <step-length value="1"/>
    </time>

    <traci_server>
        <remote-port value="57678"/>
    </traci_server>

</sumoConfiguration>
-->

<tripinfos xmlns:xsi="http://www.w3.org/2001/XMLSchema-instance" xsi:noNamespaceSchemaLocation="http://sumo.dlr.de/xsd/tripinfo_file.xsd">
    <tripinfo id="car0" depart="0.00" departLane="north2center_0" departPos="5.10" departSpeed="13.89" departDelay="0.00" arrival="29.00" arrivalLane="center2south_0" arrivalPos="192.80" arrivalSpeed="13.84" duration="29.00" routeLength="394.90" waitingTime="0.00" waitingCount="0" stopTime="0.00" timeLoss="0.57" rerouteNo="0" devices="tripinfo_car0" vType="north2south_car" speedFactor="1.06" vaporized=""/>
    <tripinfo id="car1" depart="2.00" departLane="north2center_0" departPos="5.10" departSpeed="13.89" departDelay="0.00" arrival="31.00" arrivalLane="center2south_0" arrivalPos="192.80" arrivalSpeed="13.66" duration="29.00" routeLength="394.90" waitingTime="0.00" waitingCount="0" stopTime="0.00" timeLoss="0.49" rerouteNo="0" devices="tripinfo_car1" vType="north2south_car" speedFactor="1.01" vaporized=""/>
    <tripinfo id="car1798" depart="1.00" departLane="south2center_0" departPos="5.10" departSpeed="13.03" departDelay="0.00" arrival="32.00" arrivalLane="center2north_0" arrivalPos="192.80" arrivalSpeed="12.78" duration="31.00" routeLength="394.90" waitingTime="0.00" waitingCount="0" stopTime="0.00" timeLoss="0.67" rerouteNo="0" devices="tripinfo_car1798" vType="south2north_car" speedFactor="0.94" vaporized=""/>
    <tripinfo id="car4632" depart="8.00" departLane="east2center_0" departPos="5.10" departSpeed="8.33" departDelay="0.00" arrival="57.00" arrivalLane="center2west_0" arrivalPos="192.80" arrivalSpeed="8.03" duration="49.00" routeLength="394.90" waitingTime="0.00" waitingCount="0" stopTime="0.00" timeLoss="1.36" rerouteNo="0" devices="tripinfo_car4632" vType="east2west_car" speedFactor="1.03" vaporized=""/>
    <tripinfo id="car1799" depart="7.00" departLane="south2center_0" departPos="5.10" departSpeed="13.89" departDelay="0.00" arrival="64.00" arrivalLane="center2north_0" arrivalPos="192.80" arrivalSpeed="13.70" duration="57.00" routeLength="394.90" waitingTime="17.00" waitingCount="1" stopTime="0.00" timeLoss="28.24" rerouteNo="0" devices="tripinfo_car1799" vType="south2north_car" speedFactor="1.08" vaporized=""/>
    <tripinfo id="car4633" depart="15.00" departLane="east2center_0" departPos="5.10" departSpeed="8.33" departDelay="0.00" arrival="64.00" arrivalLane="center2west_0" arrivalPos="192.80" arrivalSpeed="8.00" duration="49.00" routeLength="394.90" waitingTime="0.00" waitingCount="0" stopTime="0.00" timeLoss="1.51" rerouteNo="0" devices="tripinfo_car4633" vType="east2west_car" speedFactor="1.05" vaporized=""/>
    <tripinfo id="car2" depart="15.00" departLane="north2center_0" departPos="5.10" departSpeed="12.31" departDelay="0.00" arrival="64.00" arrivalLane="center2south_0" arrivalPos="192.80" arrivalSpeed="12.01" duration="49.00" routeLength="394.90" waitingTime="7.00" waitingCount="1" stopTime="0.00" timeLoss="16.44" rerouteNo="0" devices="tripinfo_car2" vType="north2south_car" speedFactor="0.89" vaporized=""/>
    <tripinfo id="car3" depart="21.00" departLane="north2center_0" departPos="5.10" departSpeed="13.77" departDelay="0.00" arrival="66.00" arrivalLane="center2south_0" arrivalPos="192.80" arrivalSpeed="13.75" duration="45.00" routeLength="394.90" waitingTime="4.00" waitingCount="1" stopTime="0.00" timeLoss="15.46" rerouteNo="0" devices="tripinfo_car3" vType="north2south_car" speedFactor="0.99" vaporized=""/>
    <tripinfo id="car1800" depart="14.00" departLane="south2center_0" departPos="5.10" departSpeed="11.54" departDelay="0.00" arrival="67.00" arrivalLane="center2north_0" arrivalPos="192.80" arrivalSpeed="11.25" duration="53.00" routeLength="394.90" waitingTime="8.00" waitingCount="1" stopTime="0.00" timeLoss="18.72" rerouteNo="0" devices="tripinfo_car1800" vType="south2north_car" speedFactor="0.83" vaporized=""/>
    <tripinfo id="car4" depart="25.00" departLane="north2center_0" departPos="5.10" departSpeed="12.20" departDelay="0.00" arrival="68.00" arrivalLane="center2south_0" arrivalPos="192.80" arrivalSpeed="11.88" duration="43.00" routeLength="394.90" waitingTime="0.00" waitingCount="0" stopTime="0.00" timeLoss="10.16" rerouteNo="0" devices="tripinfo_car4" vType="north2south_car" speedFactor="0.88" vaporized=""/>
    <tripinfo id="car1801" depart="15.00" departLane="south2center_0" departPos="5.10" departSpeed="9.01" departDelay="0.00" arrival="69.00" arrivalLane="center2north_0" arrivalPos="192.80" arrivalSpeed="12.58" duration="54.00" routeLength="394.90" waitingTime="8.00" waitingCount="1" stopTime="0.00" timeLoss="23.21" rerouteNo="0" devices="tripinfo_car1801" vType="south2north_car" speedFactor="0.94" vaporized=""/>
    <tripinfo id="car3574" depart="17.00" departLane="west2center_0" departPos="5.10" departSpeed="8.33" departDelay="0.00" arrival="80.00" arrivalLane="center2east_0" arrivalPos="192.80" arrivalSpeed="7.89" duration="63.00" routeLength="394.90" waitingTime="8.00" waitingCount="1" stopTime="0.00" timeLoss="14.97" rerouteNo="0" devices="tripinfo_car3574" vType="west2east_car" speedFactor="1.09" vaporized=""/>
    <tripinfo id="car4634" depart="17.00" departLane="east2center_0" departPos="5.10" departSpeed="8.33" departDelay="0.00" arrival="81.00" arrivalLane="center2west_0" arrivalPos="192.80" arrivalSpeed="7.86" duration="64.00" routeLength="394.90" waitingTime="8.00" waitingCount="1" stopTime="0.00" timeLoss="15.83" rerouteNo="0" devices="tripinfo_car4634" vType="east2west_car" speedFactor="0.86" vaporized=""/>
    <tripinfo id="car4635" depart="19.00" departLane="east2center_0" departPos="5.10" departSpeed="8.31" departDelay="0.00" arrival="83.00" arrivalLane="center2west_0" arrivalPos="192.80" arrivalSpeed="7.89" duration="64.00" routeLength="394.90" waitingTime="7.00" waitingCount="1" stopTime="0.00" timeLoss="15.95" rerouteNo="0" devices="tripinfo_car4635" vType="east2west_car" speedFactor="1.05" vaporized=""/>
    <tripinfo id="car3575" depart="20.00" departLane="west2center_0" departPos="5.10" departSpeed="8.33" departDelay="0.00" arrival="83.00" arrivalLane="center2east_0" arrivalPos="192.80" arrivalSpeed="8.20" duration="63.00" routeLength="394.90" waitingTime="6.00" waitingCount="1" stopTime="0.00" timeLoss="14.80" rerouteNo="0" devices="tripinfo_car3575" vType="west2east_car" speedFactor="1.12" vaporized=""/>
    <tripinfo id="car5" depart="29.00" departLane="north2center_0" departPos="5.10" departSpeed="13.89" departDelay="0.00" arrival="84.00" arrivalLane="center2south_0" arrivalPos="192.80" arrivalSpeed="13.43" duration="55.00" routeLength="394.90" waitingTime="8.00" waitingCount="1" stopTime="0.00" timeLoss="25.74" rerouteNo="0" devices="tripinfo_car5" vType="north2south_car" speedFactor="1.01" vaporized=""/>
    <tripinfo id="car1802" depart="18.00" departLane="south2center_0" departPos="5.10" departSpeed="13.14" departDelay="0.00" arrival="85.00" arrivalLane="center2north_0" arrivalPos="192.80" arrivalSpeed="13.50" duration="67.00" routeLength="394.90" waitingTime="13.00" waitingCount="2" stopTime="0.00" timeLoss="37.63" rerouteNo="0" devices="tripinfo_car1802" vType="south2north_car" speedFactor="1.03" vaporized=""/>
    <tripinfo id="car3576" depart="22.00" departLane="west2center_0" departPos="5.10" departSpeed="8.32" departDelay="0.00" arrival="85.00" arrivalLane="center2east_0" arrivalPos="192.80" arrivalSpeed="8.04" duration="63.00" routeLength="394.90" waitingTime="6.00" waitingCount="1" stopTime="0.00" timeLoss="15.40" rerouteNo="0" devices="tripinfo_car3576" vType="west2east_car" speedFactor="0.93" vaporized=""/>
    <tripinfo id="car4636" depart="25.00" departLane="east2center_0" departPos="5.10" departSpeed="8.33" departDelay="0.00" arrival="85.00" arrivalLane="center2west_0" arrivalPos="192.80" arrivalSpeed="8.22" duration="60.00" routeLength="394.90" waitingTime="3.00" waitingCount="1" stopTime="0.00" timeLoss="12.18" rerouteNo="0" devices="tripinfo_car4636" vType="east2west_car" speedFactor="0.94" vaporized=""/>
    <tripinfo id="car1803" depart="29.00" departLane="south2center_0" departPos="5.10" departSpeed="13.89" departDelay="0.00" arrival="86.00" arrivalLane="center2north_0" arrivalPos="192.80" arrivalSpeed="13.39" duration="57.00" routeLength="394.90" waitingTime="6.00" waitingCount="2" stopTime="0.00" timeLoss="28.49" rerouteNo="0" devices="tripinfo_car1803" vType="south2north_car" speedFactor="1.16" vaporized=""/>
    <tripinfo id="car6" depart="41.00" departLane="north2center_0" departPos="5.10" departSpeed="12.36" departDelay="0.00" arrival="86.00" arrivalLane="center2south_0" arrivalPos="192.80" arrivalSpeed="12.24" duration="45.00" routeLength="394.90" waitingTime="2.00" waitingCount="1" stopTime="0.00" timeLoss="12.98" rerouteNo="0" devices="tripinfo_car6" vType="north2south_car" speedFactor="0.89" vaporized=""/>
    <tripinfo id="car1804" depart="31.00" departLane="south2center_0" departPos="5.10" departSpeed="13.89" departDelay="2.00" arrival="88.00" arrivalLane="center2north_0" arrivalPos="192.80" arrivalSpeed="13.88" duration="57.00" routeLength="394.90" waitingTime="5.00" waitingCount="2" stopTime="0.00" timeLoss="28.10" rerouteNo="0" devices="tripinfo_car1804" vType="south2north_car" speedFactor="1.02" vaporized=""/>
    <tripinfo id="car7" depart="45.00" departLane="north2center_0" departPos="5.10" departSpeed="12.12" departDelay="0.00" arrival="88.00" arrivalLane="center2south_0" arrivalPos="192.80" arrivalSpeed="11.67" duration="43.00" routeLength="394.90" waitingTime="0.00" waitingCount="0" stopTime="0.00" timeLoss="10.38" rerouteNo="0" devices="tripinfo_car7" vType="north2south_car" speedFactor="0.87" vaporized=""/>
    <tripinfo id="car1805" depart="32.00" departLane="south2center_0" departPos="5.10" departSpeed="11.47" departDelay="0.00" arrival="90.00" arrivalLane="center2north_0" arrivalPos="192.80" arrivalSpeed="13.30" duration="58.00" routeLength="394.90" waitingTime="4.00" waitingCount="1" stopTime="0.00" timeLoss="28.37" rerouteNo="0" devices="tripinfo_car1805" vType="south2north_car" speedFactor="0.97" vaporized=""/>
    <tripinfo id="car8" depart="52.00" departLane="north2center_0" departPos="5.10" departSpeed="13.18" departDelay="0.00" arrival="90.00" arrivalLane="center2south_0" arrivalPos="192.80" arrivalSpeed="12.94" duration="38.00" routeLength="394.90" waitingTime="0.00" waitingCount="0" stopTime="0.00" timeLoss="7.59" rerouteNo="0" devices="tripinfo_car8" vType="north2south_car" speedFactor="0.95" vaporized=""/>
    <tripinfo id="car1806" depart="52.00" departLane="south2center_0" departPos="5.10" departSpeed="12.74" departDelay="0.00" arrival="92.00" arrivalLane="center2north_0" arrivalPos="192.80" arrivalSpeed="12.35" duration="40.00" routeLength="394.90" waitingTime="0.00" waitingCount="0" stopTime="0.00" timeLoss="8.72" rerouteNo="0" devices="tripinfo_car1806" vType="south2north_car" speedFactor="0.92" vaporized=""/>
    <tripinfo id="car9" depart="54.00" departLane="north2center_0" departPos="5.10" departSpeed="13.89" departDelay="0.00" arrival="92.00" arrivalLane="center2south_0" arrivalPos="192.80" arrivalSpeed="13.77" duration="38.00" routeLength="394.90" waitingTime="0.00" waitingCount="0" stopTime="0.00" timeLoss="8.71" rerouteNo="0" devices="tripinfo_car9" vType="north2south_car" speedFactor="1.13" vaporized=""/>
    <tripinfo id="car10" depart="61.00" departLane="north2center_0" departPos="5.10" departSpeed="13.89" departDelay="0.00" arrival="93.00" arrivalLane="center2south_0" arrivalPos="192.80" arrivalSpeed="13.81" duration="32.00" routeLength="394.90" waitingTime="0.00" waitingCount="0" stopTime="0.00" timeLoss="3.34" rerouteNo="0" devices="tripinfo_car10" vType="north2south_car" speedFactor="1.18" vaporized=""/>
    <tripinfo id="car1807" depart="55.00" departLane="south2center_0" departPos="5.10" departSpeed="12.94" departDelay="0.00" arrival="94.00" arrivalLane="center2north_0" arrivalPos="192.80" arrivalSpeed="12.68" duration="39.00" routeLength="394.90" waitingTime="0.00" waitingCount="0" stopTime="0.00" timeLoss="7.81" rerouteNo="0" devices="tripinfo_car1807" vType="south2north_car" speedFactor="0.93" vaporized=""/>
    <tripinfo id="car1808" depart="61.00" departLane="south2center_0" departPos="5.10" departSpeed="13.89" departDelay="0.00" arrival="95.00" arrivalLane="center2north_0" arrivalPos="192.80" arrivalSpeed="13.24" duration="34.00" routeLength="394.90" waitingTime="0.00" waitingCount="0" stopTime="0.00" timeLoss="5.52" rerouteNo="0" devices="tripinfo_car1808" vType="south2north_car" speedFactor="1.15" vaporized=""/>
    <tripinfo id="car11" depart="65.00" departLane="north2center_0" departPos="5.10" departSpeed="13.82" departDelay="0.00" arrival="95.00" arrivalLane="center2south_0" arrivalPos="192.80" arrivalSpeed="13.81" duration="30.00" routeLength="394.90" waitingTime="0.00" waitingCount="0" stopTime="0.00" timeLoss="0.88" rerouteNo="0" devices="tripinfo_car11" vType="north2south_car" speedFactor="0.99" vaporized=""/>
    <tripinfo id="car4637" depart="26.00" departLane="east2center_0" departPos="5.10" departSpeed="4.56" departDelay="0.00" arrival="110.00" arrivalLane="center2west_0" arrivalPos="192.80" arrivalSpeed="8.20" duration="84.00" routeLength="394.90" waitingTime="19.00" waitingCount="2" stopTime="0.00" timeLoss="36.33" rerouteNo="0" devices="tripinfo_car4637" vType="east2west_car" speedFactor="0.94" vaporized=""/>
    <tripinfo id="car4638" depart="42.00" departLane="east2center_0" departPos="5.10" departSpeed="8.33" departDelay="0.00" arrival="113.00" arrivalLane="center2west_0" arrivalPos="192.80" arrivalSpeed="8.33" duration="71.00" routeLength="394.90" waitingTime="14.00" waitingCount="1" stopTime="0.00" timeLoss="22.92" rerouteNo="0" devices="tripinfo_car4638" vType="east2west_car" speedFactor="0.83" vaporized=""/>
    <tripinfo id="car12" depart="82.00" departLane="north2center_0" departPos="5.10" departSpeed="13.29" departDelay="0.00" arrival="113.00" arrivalLane="center2south_0" arrivalPos="192.80" arrivalSpeed="12.91" duration="31.00" routeLength="394.90" waitingTime="0.00" waitingCount="0" stopTime="0.00" timeLoss="0.67" rerouteNo="0" devices="tripinfo_car12" vType="north2south_car" speedFactor="0.96" vaporized=""/>
    <tripinfo id="car1809" depart="64.00" departLane="south2center_0" departPos="5.10" departSpeed="13.89" departDelay="0.00" arrival="114.00" arrivalLane="center2north_0" arrivalPos="192.80" arrivalSpeed="13.50" duration="50.00" routeLength="394.90" waitingTime="9.00" waitingCount="1" stopTime="0.00" timeLoss="20.72" rerouteNo="0" devices="tripinfo_car1809" vType="south2north_car" speedFactor="1.01" vaporized=""/>
    <tripinfo id="car13" depart="85.00" departLane="north2center_0" departPos="5.10" departSpeed="13.89" departDelay="0.00" arrival="114.00" arrivalLane="center2south_0" arrivalPos="192.80" arrivalSpeed="13.89" duration="29.00" routeLength="394.90" waitingTime="0.00" waitingCount="0" stopTime="0.00" timeLoss="0.53" rerouteNo="0" devices="tripinfo_car13" vType="north2south_car" speedFactor="1.09" vaporized=""/>
    <tripinfo id="car1810" depart="66.00" departLane="south2center_0" departPos="5.10" departSpeed="13.89" departDelay="1.00" arrival="115.00" arrivalLane="center2north_0" arrivalPos="192.80" arrivalSpeed="13.52" duration="49.00" routeLength="394.90" waitingTime="9.00" waitingCount="1" stopTime="0.00" timeLoss="20.43" rerouteNo="0" devices="tripinfo_car1810" vType="south2north_car" speedFactor="1.17" vaporized=""/>
    <tripinfo id="car1811" depart="73.00" departLane="south2center_0" departPos="5.10" departSpeed="13.89" departDelay="0.00" arrival="117.00" arrivalLane="center2north_0" arrivalPos="192.80" arrivalSpeed="13.76" duration="44.00" routeLength="394.90" waitingTime="3.00" waitingCount="1" stopTime="0.00" timeLoss="15.37" rerouteNo="0" devices="tripinfo_car1811" vType="south2north_car" speedFactor="1.10" vaporized=""/>
    <tripinfo id="car14" depart="86.00" departLane="north2center_0" departPos="5.10" departSpeed="11.00" departDelay="0.00" arrival="119.00" arrivalLane="center2south_0" arrivalPos="192.80" arrivalSpeed="12.09" duration="33.00" routeLength="394.90" waitingTime="0.00" waitingCount="0" stopTime="0.00" timeLoss="0.75" rerouteNo="0" devices="tripinfo_car14" vType="north2south_car" speedFactor="0.90" vaporized=""/>
    <tripinfo id="car1812" depart="74.00" departLane="south2center_0" departPos="5.10" departSpeed="11.13" departDelay="0.00" arrival="120.00" arrivalLane="center2north_0" arrivalPos="192.80" arrivalSpeed="12.41" duration="46.00" routeLength="394.90" waitingTime="3.00" waitingCount="1" stopTime="0.00" timeLoss="14.01" rerouteNo="0" devices="tripinfo_car1812" vType="south2north_car" speedFactor="0.90" vaporized=""/>
    <tripinfo id="car15" depart="90.00" departLane="north2center_0" departPos="5.10" departSpeed="13.89" departDelay="0.00" arrival="120.00" arrivalLane="center2south_0" arrivalPos="192.80" arrivalSpeed="13.09" duration="30.00" routeLength="394.90" waitingTime="0.00" waitingCount="0" stopTime="0.00" timeLoss="1.49" rerouteNo="0" devices="tripinfo_car15" vType="north2south_car" speedFactor="1.02" vaporized=""/>
    <tripinfo id="car1813" depart="82.00" departLane="south2center_0" departPos="5.10" departSpeed="13.89" departDelay="0.00" arrival="122.00" arrivalLane="center2north_0" arrivalPos="192.80" arrivalSpeed="13.61" duration="40.00" routeLength="394.90" waitingTime="0.00" waitingCount="0" stopTime="0.00" timeLoss="10.74" rerouteNo="0" devices="tripinfo_car1813" vType="south2north_car" speedFactor="1.09" vaporized=""/>
    <tripinfo id="car16" depart="92.00" departLane="north2center_0" departPos="5.10" departSpeed="13.89" departDelay="2.00" arrival="122.00" arrivalLane="center2south_0" arrivalPos="192.80" arrivalSpeed="13.78" duration="30.00" routeLength="394.90" waitingTime="0.00" waitingCount="0" stopTime="0.00" timeLoss="1.12" rerouteNo="0" devices="tripinfo_car16" vType="north2south_car" speedFactor="1.10" vaporized=""/>
    <tripinfo id="car1814" depart="84.00" departLane="south2center_0" departPos="5.10" departSpeed="13.89" departDelay="1.00" arrival="123.00" arrivalLane="center2north_0" arrivalPos="192.80" arrivalSpeed="13.75" duration="39.00" routeLength="394.90" waitingTime="0.00" waitingCount="0" stopTime="0.00" timeLoss="10.30" rerouteNo="0" devices="tripinfo_car1814" vType="south2north_car" speedFactor="1.04" vaporized=""/>
    <tripinfo id="car17" depart="95.00" departLane="north2center_0" departPos="5.10" departSpeed="13.89" departDelay="0.00" arrival="124.00" arrivalLane="center2south_0" arrivalPos="192.80" arrivalSpeed="13.77" duration="29.00" routeLength="394.90" waitingTime="0.00" waitingCount="0" stopTime="0.00" timeLoss="0.58" rerouteNo="0" devices="tripinfo_car17" vType="north2south_car" speedFactor="1.14" vaporized=""/>
    <tripinfo id="car1815" depart="85.00" departLane="south2center_0" departPos="5.10" departSpeed="11.23" departDelay="1.00" arrival="125.00" arrivalLane="center2north_0" arrivalPos="192.80" arrivalSpeed="13.72" duration="40.00" routeLength="394.90" waitingTime="0.00" waitingCount="0" stopTime="0.00" timeLoss="10.93" rerouteNo="0" devices="tripinfo_car1815" vType="south2north_car" speedFactor="1.04" vaporized=""/>
    <tripinfo id="car4639" depart="67.00" departLane="east2center_0" departPos="5.10" departSpeed="8.33" departDelay="0.00" arrival="140.00" arrivalLane="center2west_0" arrivalPos="192.80" arrivalSpeed="8.01" duration="73.00" routeLength="394.90" waitingTime="18.00" waitingCount="1" stopTime="0.00" timeLoss="25.27" rerouteNo="0" devices="tripinfo_car4639" vType="east2west_car" speedFactor="1.02" vaporized=""/>
    <tripinfo id="car3577" depart="91.00" departLane="west2center_0" departPos="5.10" departSpeed="8.33" departDelay="0.00" arrival="140.00" arrivalLane="center2east_0" arrivalPos="192.80" arrivalSpeed="8.14" duration="49.00" routeLength="394.90" waitingTime="0.00" waitingCount="0" stopTime="0.00" timeLoss="1.42" rerouteNo="0" devices="tripinfo_car3577" vType="west2east_car" speedFactor="1.00" vaporized=""/>
    <tripinfo id="car4640" depart="68.00" departLane="east2center_0" departPos="5.10" departSpeed="4.57" departDelay="1.00" arrival="142.00" arrivalLane="center2west_0" arrivalPos="192.80" arrivalSpeed="8.22" duration="74.00" routeLength="394.90" waitingTime="16.00" waitingCount="1" stopTime="0.00" timeLoss="26.57" rerouteNo="0" devices="tripinfo_car4640" vType="east2west_car" speedFactor="0.97" vaporized=""/>
    <tripinfo id="car3578" depart="92.00" departLane="west2center_0" departPos="5.10" departSpeed="3.97" departDelay="0.00" arrival="143.00" arrivalLane="center2east_0" arrivalPos="192.80" arrivalSpeed="8.29" duration="51.00" routeLength="394.90" waitingTime="0.00" waitingCount="0" stopTime="0.00" timeLoss="3.18" rerouteNo="0" devices="tripinfo_car3578" vType="west2east_car" speedFactor="1.00" vaporized=""/>
    <tripinfo id="car18" depart="100.00" departLane="north2center_0" departPos="5.10" departSpeed="13.89" departDelay="0.00" arrival="144.00" arrivalLane="center2south_0" arrivalPos="192.80" arrivalSpeed="13.67" duration="44.00" routeLength="394.90" waitingTime="3.00" waitingCount="1" stopTime="0.00" timeLoss="14.75" rerouteNo="0" devices="tripinfo_car18" vType="north2south_car" speedFactor="1.02" vaporized=""/>
    <tripinfo id="car4641" depart="72.00" departLane="east2center_0" departPos="5.10" departSpeed="8.33" departDelay="0.00" arrival="145.00" arrivalLane="center2west_0" arrivalPos="192.80" arrivalSpeed="7.99" duration="73.00" routeLength="394.90" waitingTime="16.00" waitingCount="1" stopTime="0.00" timeLoss="24.67" rerouteNo="0" devices="tripinfo_car4641" vType="east2west_car" speedFactor="1.18" vaporized=""/>
    <tripinfo id="car1816" depart="86.00" departLane="south2center_0" departPos="5.10" departSpeed="8.56" departDelay="1.00" arrival="145.00" arrivalLane="center2north_0" arrivalPos="192.80" arrivalSpeed="13.82" duration="59.00" routeLength="394.90" waitingTime="9.00" waitingCount="1" stopTime="0.00" timeLoss="29.97" rerouteNo="0" devices="tripinfo_car1816" vType="south2north_car" speedFactor="1.00" vaporized=""/>
    <tripinfo id="car3579" depart="95.00" departLane="west2center_0" departPos="5.10" departSpeed="6.14" departDelay="0.00" arrival="145.00" arrivalLane="center2east_0" arrivalPos="192.80" arrivalSpeed="8.33" duration="50.00" routeLength="394.90" waitingTime="0.00" waitingCount="0" stopTime="0.00" timeLoss="2.32" rerouteNo="0" devices="tripinfo_car3579" vType="west2east_car" speedFactor="0.90" vaporized=""/>
    <tripinfo id="car19" depart="103.00" departLane="north2center_0" departPos="5.10" departSpeed="13.89" departDelay="0.00" arrival="145.00" arrivalLane="center2south_0" arrivalPos="192.80" arrivalSpeed="13.79" duration="42.00" routeLength="394.90" waitingTime="1.00" waitingCount="1" stopTime="0.00" timeLoss="13.54" rerouteNo="0" devices="tripinfo_car19" vType="north2south_car" speedFactor="1.08" vaporized=""/>
    <tripinfo id="car1817" depart="88.00" departLane="south2center_0" departPos="5.10" departSpeed="9.38" departDelay="2.00" arrival="148.00" arrivalLane="center2north_0" arrivalPos="192.80" arrivalSpeed="12.07" duration="60.00" routeLength="394.90" waitingTime="8.00" waitingCount="1" stopTime="0.00" timeLoss="26.71" rerouteNo="0" devices="tripinfo_car1817" vType="south2north_car" speedFactor="0.88" vaporized=""/>
    <tripinfo id="car1818" depart="90.00" departLane="south2center_0" departPos="5.10" departSpeed="10.27" departDelay="3.00" arrival="150.00" arrivalLane="center2north_0" arrivalPos="192.80" arrivalSpeed="11.50" duration="60.00" routeLength="394.90" waitingTime="8.00" waitingCount="1" stopTime="0.00" timeLoss="26.13" rerouteNo="0" devices="tripinfo_car1818" vType="south2north_car" speedFactor="0.85" vaporized=""/>
    <tripinfo id="car1819" depart="93.00" departLane="south2center_0" departPos="5.10" departSpeed="13.89" departDelay="4.00" arrival="151.00" arrivalLane="center2north_0" arrivalPos="192.80" arrivalSpeed="12.83" duration="58.00" routeLength="394.90" waitingTime="7.00" waitingCount="1" stopTime="0.00" timeLoss="29.54" rerouteNo="0" devices="tripinfo_car1819" vType="south2north_car" speedFactor="1.17" vaporized=""/>
    <tripinfo id="car1820" depart="101.00" departLane="south2center_0" departPos="5.10" departSpeed="13.47" departDelay="0.00" arrival="153.00" arrivalLane="center2north_0" arrivalPos="192.80" arrivalSpeed="12.99" duration="52.00" routeLength="394.90" waitingTime="6.00" waitingCount="1" stopTime="0.00" timeLoss="22.33" rerouteNo="0" devices="tripinfo_car1820" vType="south2north_car" speedFactor="0.97" vaporized=""/>
    <tripinfo id="car20" depart="123.00" departLane="north2center_0" departPos="5.10" departSpeed="13.51" departDelay="1.00" arrival="153.00" arrivalLane="center2south_0" arrivalPos="192.80" arrivalSpeed="13.26" duration="30.00" routeLength="394.90" waitingTime="0.00" waitingCount="0" stopTime="0.00" timeLoss="0.44" rerouteNo="0" devices="tripinfo_car20" vType="north2south_car" speedFactor="0.97" vaporized=""/>
    <tripinfo id="car1821" depart="103.00" departLane="south2center_0" departPos="5.10" departSpeed="13.89" departDelay="0.00" arrival="155.00" arrivalLane="center2north_0" arrivalPos="192.80" arrivalSpeed="13.74" duration="52.00" routeLength="394.90" waitingTime="6.00" waitingCount="1" stopTime="0.00" timeLoss="22.81" rerouteNo="0" devices="tripinfo_car1821" vType="south2north_car" speedFactor="1.12" vaporized=""/>
    <tripinfo id="car1822" depart="107.00" departLane="south2center_0" departPos="5.10" departSpeed="13.71" departDelay="0.00" arrival="156.00" arrivalLane="center2north_0" arrivalPos="192.80" arrivalSpeed="13.62" duration="49.00" routeLength="394.90" waitingTime="5.00" waitingCount="1" stopTime="0.00" timeLoss="20.07" rerouteNo="0" devices="tripinfo_car1822" vType="south2north_car" speedFactor="0.99" vaporized=""/>
    <tripinfo id="car21" depart="125.00" departLane="north2center_0" departPos="5.10" departSpeed="13.06" departDelay="2.00" arrival="156.00" arrivalLane="center2south_0" arrivalPos="192.80" arrivalSpeed="13.04" duration="31.00" routeLength="394.90" waitingTime="0.00" waitingCount="0" stopTime="0.00" timeLoss="0.59" rerouteNo="0" devices="tripinfo_car21" vType="north2south_car" speedFactor="0.94" vaporized=""/>
    <tripinfo id="car22" depart="126.00" departLane="north2center_0" departPos="5.10" departSpeed="10.28" departDelay="1.00" arrival="158.00" arrivalLane="center2south_0" arrivalPos="192.80" arrivalSpeed="13.67" duration="32.00" routeLength="394.90" waitingTime="0.00" waitingCount="0" stopTime="0.00" timeLoss="3.02" rerouteNo="0" devices="tripinfo_car22" vType="north2south_car" speedFactor="1.06" vaporized=""/>
    <tripinfo id="car1823" depart="113.00" departLane="south2center_0" departPos="5.10" departSpeed="12.70" departDelay="1.00" arrival="159.00" arrivalLane="center2north_0" arrivalPos="192.80" arrivalSpeed="12.55" duration="46.00" routeLength="394.90" waitingTime="1.00" waitingCount="1" stopTime="0.00" timeLoss="14.02" rerouteNo="0" devices="tripinfo_car1823" vType="south2north_car" speedFactor="0.91" vaporized=""/>
    <tripinfo id="car1824" depart="114.00" departLane="south2center_0" departPos="5.10" departSpeed="10.04" departDelay="2.00" arrival="160.00" arrivalLane="center2north_0" arrivalPos="192.80" arrivalSpeed="12.92" duration="46.00" routeLength="394.90" waitingTime="0.00" waitingCount="0" stopTime="0.00" timeLoss="17.29" rerouteNo="0" devices="tripinfo_car1824" vType="south2north_car" speedFactor="1.04" vaporized=""/>
    <tripinfo id="car23" depart="128.00" departLane="north2center_0" departPos="5.10" departSpeed="11.47" departDelay="0.00" arrival="160.00" arrivalLane="center2south_0" arrivalPos="192.80" arrivalSpeed="13.39" duration="32.00" routeLength="394.90" waitingTime="0.00" waitingCount="0" stopTime="0.00" timeLoss="2.15" rerouteNo="0" devices="tripinfo_car23" vType="north2south_car" speedFactor="0.98" vaporized=""/>
    <tripinfo id="car24" depart="131.00" departLane="north2center_0" departPos="5.10" departSpeed="13.89" departDelay="0.00" arrival="161.00" arrivalLane="center2south_0" arrivalPos="192.80" arrivalSpeed="13.53" duration="30.00" routeLength="394.90" waitingTime="0.00" waitingCount="0" stopTime="0.00" timeLoss="1.28" rerouteNo="0" devices="tripinfo_car24" vType="north2south_car" speedFactor="1.09" vaporized=""/>
    <tripinfo id="car1825" depart="119.00" departLane="south2center_0" departPos="5.10" departSpeed="13.89" departDelay="1.00" arrival="162.00" arrivalLane="center2north_0" arrivalPos="192.80" arrivalSpeed="13.47" duration="43.00" routeLength="394.90" waitingTime="0.00" waitingCount="0" stopTime="0.00" timeLoss="13.93" rerouteNo="0" devices="tripinfo_car1825" vType="south2north_car" speedFactor="1.02" vaporized=""/>
    <tripinfo id="car25" depart="132.00" departLane="north2center_0" departPos="5.10" departSpeed="11.13" departDelay="0.00" arrival="163.00" arrivalLane="center2south_0" arrivalPos="192.80" arrivalSpeed="13.73" duration="31.00" routeLength="394.90" waitingTime="0.00" waitingCount="0" stopTime="0.00" timeLoss="1.91" rerouteNo="0" devices="tripinfo_car25" vType="north2south_car" speedFactor="1.03" vaporized=""/>